<?xml version="1.0" encoding="UTF-8"?>

<!-- generated on 2025-12-20T09:50:14.512601+07:00 by Eclipse SUMO sumo 1.25.0
<sumoConfiguration xmlns:xsi="http://www.w3.org/2001/XMLSchema-instance" xsi:noNamespaceSchemaLocation="http://sumo.dlr.de/xsd/sumoConfiguration.xsd">

    <input>
        <net-file value="Deep-Qlearning-TSC/danang_16069441_10820969/project.net.xml"/>
        <route-files value="Deep-Qlearning-TSC/danang_16069441_10820969/Sumo/2025-12-19-21-53-46/osm.passenger.trips.xml"/>
        <additional-files value="Deep-Qlearning-TSC/danang_16069441_10820969/Sumo/2025-12-19-21-53-46/osm.poly.xml.gz,Deep-Qlearning-TSC/danang_16069441_10820969/Sumo/2025-12-19-21-53-46/output.add.xml"/>
    </input>

    <output>
        <tripinfo-output value="Deep-Qlearning-TSC/danang_16069441_10820969/Sumo/2025-12-19-21-53-46/tripinfos.xml"/>
        <statistic-output value="Deep-Qlearning-TSC/danang_16069441_10820969/Sumo/2025-12-19-21-53-46/stats.xml"/>
    </output>

    <time>
        <end value="5"/>
    </time>

    <processing>
        <ignore-route-errors value="true"/>
        <tls.actuated.jam-threshold value="30"/>
    </processing>

    <routing>
        <device.rerouting.adaptation-steps value="18"/>
        <device.rerouting.adaptation-interval value="10"/>
    </routing>

    <report>
        <verbose value="true"/>
        <duration-log.disable value="true"/>
        <duration-log.statistics value="true"/>
        <no-step-log value="true"/>
    </report>

    <gui_only>
        <gui-settings-file value="Deep-Qlearning-TSC/danang_16069441_10820969/Sumo/2025-12-19-21-53-46/osm.view.xml"/>
        <quit-on-end value="true"/>
    </gui_only>

</sumoConfiguration>
-->

<meandata xmlns:xsi="http://www.w3.org/2001/XMLSchema-instance" xsi:noNamespaceSchemaLocation="http://sumo.dlr.de/xsd/meandata_file.xsd">
    <interval begin="0.00" end="5.00" id="wizard_example">
        <edge id="-35950914#3" sampledSeconds="0.00" departed="0" arrived="0" entered="0" left="0" laneChangedFrom="0" laneChangedTo="0"/>
        <edge id="-35950914#8" sampledSeconds="0.00" departed="0" arrived="0" entered="0" left="0" laneChangedFrom="0" laneChangedTo="0"/>
        <edge id="-408162776#4" sampledSeconds="4.00" traveltime="14.08" overlapTraveltime="14.44" density="4.02" overlapDensity="4.02" laneDensity="4.02" occupancy="2.01" waitingTime="0.00" timeLoss="0.16" speed="14.12" speedRelative="1.02" departed="1" arrived="0" entered="0" left="0" laneChangedFrom="0" laneChangedTo="0" flow="204.52"/>
        <edge id="-408162778#0" sampledSeconds="0.00" departed="0" arrived="0" entered="0" left="0" laneChangedFrom="0" laneChangedTo="0"/>
        <edge id="-408162778#8" sampledSeconds="0.00" departed="0" arrived="0" entered="0" left="0" laneChangedFrom="0" laneChangedTo="0"/>
        <edge id="35950914#0" sampledSeconds="0.00" departed="0" arrived="0" entered="0" left="0" laneChangedFrom="0" laneChangedTo="0"/>
        <edge id="35950914#4" sampledSeconds="0.00" departed="0" arrived="0" entered="0" left="0" laneChangedFrom="0" laneChangedTo="0"/>
        <edge id="408162776#0" sampledSeconds="0.00" departed="0" arrived="0" entered="0" left="0" laneChangedFrom="0" laneChangedTo="0"/>
        <edge id="408162778#0" sampledSeconds="0.00" departed="0" arrived="0" entered="0" left="0" laneChangedFrom="0" laneChangedTo="0"/>
        <edge id="408162778#1" sampledSeconds="0.00" departed="0" arrived="0" entered="0" left="0" laneChangedFrom="0" laneChangedTo="0"/>
    </interval>
</meandata>
