<?xml version="1.0" encoding="UTF-8"?>

<!-- generated on 2025-12-21T11:55:59.281538+07:00 by Eclipse SUMO sumo 1.25.0
<sumoConfiguration xmlns:xsi="http://www.w3.org/2001/XMLSchema-instance" xsi:noNamespaceSchemaLocation="http://sumo.dlr.de/xsd/sumoConfiguration.xsd">

    <input>
        <net-file value="C:\Users\halem\PBL3\scenario\danang_16069441_10820969\project.net.xml"/>
        <route-files value="C:\Users\halem\PBL3\scenario\danang_16069441_10820969\routes_paper_weibull_5400\routes_seed9.rou.xml"/>
        <additional-files value="C:\Users\halem\PBL3\scenario\danang_16069441_10820969\Sumo/2025-12-19-21-53-46/osm.poly.xml.gz,C:\Users\halem\PBL3\scenario\danang_16069441_10820969\Sumo/2025-12-19-21-53-46/output.add.xml"/>
    </input>

    <output>
        <tripinfo-output value="NUL"/>
        <statistic-output value="NUL"/>
    </output>

    <processing>
        <ignore-route-errors value="true"/>
        <waiting-time-memory value="5400"/>
        <tls.actuated.jam-threshold value="30"/>
    </processing>

    <routing>
        <device.rerouting.adaptation-steps value="18"/>
        <device.rerouting.adaptation-interval value="10"/>
    </routing>

    <report>
        <verbose value="true"/>
        <duration-log.disable value="true"/>
        <duration-log.statistics value="true"/>
        <no-step-log value="true"/>
    </report>

    <traci_server>
        <remote-port value="65321"/>
    </traci_server>

    <random_number>
        <seed value="9"/>
    </random_number>

    <gui_only>
        <gui-settings-file value="C:\Users\halem\PBL3\scenario\danang_16069441_10820969\Sumo/2025-12-19-21-53-46/osm.view.xml"/>
    </gui_only>

</sumoConfiguration>
-->

<meandata xmlns:xsi="http://www.w3.org/2001/XMLSchema-instance" xsi:noNamespaceSchemaLocation="http://sumo.dlr.de/xsd/meandata_file.xsd">
    <interval begin="0.00" end="3600.00" id="wizard_example">
        <edge id="-35950914#3" sampledSeconds="2341.24" traveltime="8.66" overlapTraveltime="9.03" density="6.61" overlapDensity="6.82" laneDensity="6.61" occupancy="3.24" waitingTime="0.00" timeLoss="1286.24" speed="11.12" speedRelative="0.40" departed="0" arrived="262" entered="262" left="0" laneChangedFrom="0" laneChangedTo="0" flow="264.62"/>
        <edge id="-35950914#8" sampledSeconds="11389.70" traveltime="45.00" overlapTraveltime="46.10" density="21.72" overlapDensity="22.28" laneDensity="21.72" occupancy="11.01" waitingTime="6118.00" timeLoss="9883.86" speed="3.19" speedRelative="0.11" departed="256" arrived="0" entered="0" left="255" laneChangedFrom="0" laneChangedTo="0" flow="249.39"/>
        <edge id="-408162776#4" sampledSeconds="17858.96" traveltime="74.50" overlapTraveltime="76.00" density="24.43" overlapDensity="24.94" laneDensity="24.43" occupancy="12.37" waitingTime="10262.00" timeLoss="14368.66" speed="2.68" speedRelative="0.19" departed="241" arrived="0" entered="0" left="241" laneChangedFrom="0" laneChangedTo="0" flow="235.95"/>
        <edge id="-408162778#0" sampledSeconds="0.00" departed="0" arrived="0" entered="0" left="0" laneChangedFrom="0" laneChangedTo="0"/>
        <edge id="-408162778#8" sampledSeconds="4956.57" traveltime="20.01" overlapTraveltime="20.39" density="5.73" overlapDensity="5.81" laneDensity="2.86" occupancy="1.42" waitingTime="0.00" timeLoss="692.20" speed="11.86" speedRelative="0.85" departed="0" arrived="244" entered="244" left="0" laneChangedFrom="25" laneChangedTo="25" flow="244.53"/>
        <edge id="35950914#0" sampledSeconds="15116.98" traveltime="63.77" overlapTraveltime="64.79" density="43.22" overlapDensity="44.02" laneDensity="43.22" occupancy="21.82" waitingTime="10303.00" timeLoss="14143.88" speed="1.55" speedRelative="0.06" departed="246" arrived="0" entered="0" left="244" laneChangedFrom="0" laneChangedTo="0" flow="241.07"/>
        <edge id="35950914#4" sampledSeconds="2955.64" traveltime="11.87" overlapTraveltime="12.18" density="5.65" overlapDensity="5.77" laneDensity="5.65" occupancy="2.78" waitingTime="0.00" timeLoss="1514.63" speed="12.09" speedRelative="0.44" departed="0" arrived="244" entered="244" left="0" laneChangedFrom="0" laneChangedTo="0" flow="245.95"/>
        <edge id="408162776#0" sampledSeconds="4004.69" traveltime="16.82" overlapTraveltime="17.20" density="5.49" overlapDensity="5.58" laneDensity="5.49" occupancy="2.72" waitingTime="0.00" timeLoss="569.53" speed="11.87" speedRelative="0.85" departed="0" arrived="234" entered="234" left="0" laneChangedFrom="0" laneChangedTo="0" flow="234.54"/>
        <edge id="408162778#0" sampledSeconds="0.00" departed="0" arrived="0" entered="0" left="0" laneChangedFrom="0" laneChangedTo="0"/>
        <edge id="408162778#1" sampledSeconds="11537.66" traveltime="45.51" overlapTraveltime="48.23" density="12.73" overlapDensity="13.50" laneDensity="6.36" occupancy="3.24" waitingTime="5490.00" timeLoss="7296.97" speed="5.03" speedRelative="0.36" departed="245" arrived="0" entered="0" left="244" laneChangedFrom="116" laneChangedTo="116" flow="230.41"/>
    </interval>
    <interval begin="3600.00" end="4396.00" id="wizard_example">
        <edge id="-35950914#3" sampledSeconds="34.37" traveltime="6.59" overlapTraveltime="6.87" density="0.43" overlapDensity="0.45" laneDensity="0.43" occupancy="0.21" waitingTime="0.00" timeLoss="14.29" speed="14.60" speedRelative="0.53" departed="0" arrived="5" entered="5" left="0" laneChangedFrom="0" laneChangedTo="0" flow="22.83"/>
        <edge id="-35950914#8" sampledSeconds="37.13" traveltime="11.59" overlapTraveltime="12.64" density="0.30" overlapDensity="0.33" laneDensity="0.30" occupancy="0.16" waitingTime="3.00" timeLoss="19.86" speed="11.63" speedRelative="0.42" departed="3" arrived="0" entered="0" left="4" laneChangedFrom="0" laneChangedTo="0" flow="12.44"/>
        <edge id="-408162776#4" sampledSeconds="95.99" traveltime="30.86" overlapTraveltime="32.82" density="0.57" overlapDensity="0.61" laneDensity="0.57" occupancy="0.29" waitingTime="39.00" timeLoss="52.30" speed="6.21" speedRelative="0.45" departed="3" arrived="0" entered="0" left="3" laneChangedFrom="0" laneChangedTo="0" flow="12.74"/>
        <edge id="-408162778#0" sampledSeconds="0.00" departed="0" arrived="0" entered="0" left="0" laneChangedFrom="0" laneChangedTo="0"/>
        <edge id="-408162778#8" sampledSeconds="20.80" traveltime="20.70" overlapTraveltime="21.11" density="0.11" overlapDensity="0.11" laneDensity="0.05" occupancy="0.03" waitingTime="0.00" timeLoss="4.51" speed="11.45" speedRelative="0.82" departed="0" arrived="1" entered="1" left="0" laneChangedFrom="0" laneChangedTo="0" flow="4.53"/>
        <edge id="35950914#0" sampledSeconds="23.84" traveltime="18.97" overlapTraveltime="20.84" density="0.26" overlapDensity="0.31" laneDensity="0.26" occupancy="0.15" waitingTime="7.00" timeLoss="18.74" speed="4.82" speedRelative="0.17" departed="1" arrived="0" entered="0" left="3" laneChangedFrom="0" laneChangedTo="0" flow="4.53"/>
        <edge id="35950914#4" sampledSeconds="36.87" traveltime="12.01" overlapTraveltime="12.31" density="0.32" overlapDensity="0.33" laneDensity="0.32" occupancy="0.16" waitingTime="0.00" timeLoss="19.22" speed="11.96" speedRelative="0.43" departed="0" arrived="3" entered="3" left="0" laneChangedFrom="0" laneChangedTo="0" flow="13.70"/>
        <edge id="408162776#0" sampledSeconds="118.74" traveltime="16.67" overlapTraveltime="17.06" density="0.74" overlapDensity="0.75" laneDensity="0.74" occupancy="0.36" waitingTime="0.00" timeLoss="9.79" speed="11.97" speedRelative="0.86" departed="0" arrived="7" entered="7" left="0" laneChangedFrom="0" laneChangedTo="0" flow="31.70"/>
        <edge id="408162778#0" sampledSeconds="0.00" departed="0" arrived="0" entered="0" left="0" laneChangedFrom="0" laneChangedTo="0"/>
        <edge id="408162778#1" sampledSeconds="161.47" traveltime="28.32" overlapTraveltime="29.36" density="0.82" overlapDensity="0.85" laneDensity="0.41" occupancy="0.21" waitingTime="47.00" timeLoss="60.70" speed="8.26" speedRelative="0.59" departed="5" arrived="0" entered="0" left="6" laneChangedFrom="1" laneChangedTo="1" flow="24.45"/>
    </interval>
</meandata>
